unknown system                          
           1
     8.388006    0.000000    0.000000
     0.000000    8.388006    0.000000
     0.000000    0.000000    4.194003
   Mg   O 
    16    16
Direct configuration=     1
   0.99946474  0.99945750  0.99717979
   0.99809436  0.25283765  0.49348644
   0.25171902  0.99683939  0.50885518
   0.25297372  0.24677096  0.99646889
   0.00393048  0.50214780  0.99930843
   0.00292895  0.75138754  0.50029019
   0.24968503  0.49564959  0.50197870
   0.25290026  0.74732080  0.00869689
   0.49989419  0.99869889  0.99659327
   0.50056362  0.24950621  0.50084542
   0.75175787  0.00073191  0.49999589
   0.74720856  0.24502767  0.99864760
   0.49967576  0.50166852  0.99980146
   0.49701586  0.75134715  0.49516729
   0.74928098  0.50137501  0.50306761
   0.74888747  0.75088729  0.00006409
   0.00055812  0.99675195  0.50006617
   0.00312247  0.25258005  0.00372889
   0.24699474  0.00371893  0.00199927
   0.25020121  0.25231109  0.50712168
   0.99832536  0.50240570  0.49737459
   0.00340576  0.75138707  0.00687022
   0.25497173  0.49695569  0.00335264
   0.25031428  0.75035556  0.50029439
   0.50014809  0.99824791  0.49344050
   0.50216861  0.25034244  0.99547690
   0.74928896  0.99918667  0.00089964
   0.74697474  0.25011040  0.50004380
   0.50051724  0.50188766  0.49507074
   0.50236315  0.74586228  0.99349184
   0.75426471  0.50052526  0.00307222
   0.75011953  0.75142453  0.49618089
unknown system                          
           1
     8.399297    0.000682    0.000317
     0.000682    8.400757    0.000192
     0.000158    0.000096    4.199859
   Mg   O 
    16    16
Direct configuration=     2
   0.99980704  0.99961858  0.99787160
   0.99854072  0.25249752  0.49503086
   0.25088158  0.99792490  0.50685708
   0.25232766  0.24760921  0.99800549
   0.00283066  0.50185384  0.99932498
   0.00224478  0.75103986  0.50100644
   0.24995315  0.49641262  0.50231286
   0.25227492  0.74753677  0.00684328
   0.49987094  0.99854489  0.99642570
   0.50037768  0.24992910  0.49987903
   0.75181491  0.00014525  0.49973005
   0.74799198  0.24699871  0.99876072
   0.50073240  0.50102200  0.99930436
   0.49825526  0.75057414  0.49575364
   0.74938367  0.50173804  0.50289214
   0.74964385  0.75023324 -0.00012875
   0.00041598  0.99805406  0.50036469
   0.00212506  0.25171403  0.00216599
   0.24858486  0.00210949  0.00210926
   0.25050654  0.25113835  0.50515175
   0.99940746  0.50206816  0.49867145
   0.00332209  0.75112961  0.00475586
   0.25388527  0.49777564  0.00279359
   0.25078509  0.75001635  0.50126881
   0.49988719  0.99853227  0.49478455
   0.50170499  0.24964510  0.99643805
   0.74940541  0.99940506  0.00019406
   0.74779234  0.24953202  0.50002153
   0.50035565  0.50143276  0.49625516
   0.50130447  0.74753540  0.99453248
   0.75328300  0.50033648  0.00206960
   0.75002296  0.75160361  0.49748522
unknown system                          
           1
     8.406246    0.001102    0.000511
     0.001102    8.408605    0.000310
     0.000256    0.000155    4.203464
   Mg   O 
    16    16
Direct configuration=     3
   0.00001743  0.99971755  0.99829678
   0.99881508  0.25228845  0.49598009
   0.25036682  0.99859207  0.50562900
   0.25193049  0.24812438  0.99894994
   0.00215466  0.50167324  0.99933522
   0.00182427  0.75082622  0.50144670
   0.25011790  0.49688153  0.50251821
   0.25189055  0.74766955  0.00570402
   0.49985666  0.99845025  0.99632271
   0.50026337  0.25018901  0.49928506
   0.75185000 -0.00021529  0.49956667
   0.74847341  0.24820998  0.99883014
   0.50138191  0.50062462  0.99899880
   0.49901710  0.75009901  0.49611399
   0.74944677  0.50196114  0.50278427
   0.75010880  0.74983125 -0.00024729
   0.00032854  0.99885429  0.50054814
   0.00151205  0.25118188  0.00120545
   0.24956233  0.00112032  0.00217684
   0.25069430  0.25041763  0.50394100
   0.00007259  0.50186066  0.49946850
   0.00327069  0.75097140  0.00345631
   0.25321744  0.49827960  0.00245000
   0.25107448  0.74980786  0.50186772
   0.49972680  0.99870703  0.49561065
   0.50142004  0.24921657  0.99702884
   0.74947699  0.99953927 -0.00023962
   0.74829492  0.24917652  0.50000781
   0.50025634  0.50115320  0.49698316
   0.50065364  0.74856367  0.99517209
   0.75267960  0.50022052  0.00145340
   0.74996357  0.75171366  0.49828690
unknown system                          
           1
     8.420145    0.001942    0.000901
     0.001942    8.424301    0.000546
     0.000451    0.000273    4.210673
   Mg   O 
    16    16
Direct configuration=     4
   0.00043783  0.99991528  0.99914640
   0.99936335  0.25187068  0.49787692
   0.24933809  0.99992522  0.50317494
   0.25113674  0.24915378  0.00083722
   0.00080378  0.50131244  0.99935574
   0.00098393  0.75039939  0.50232653
   0.25044709  0.49781846  0.50292852
   0.25112247  0.74793491  0.00342748
   0.49982814  0.99826114  0.99611692
   0.50003495  0.25070836  0.49809812
   0.75192018 -0.00093569  0.49924020
   0.74943537  0.25063022  0.99896877
   0.50267991  0.49983056  0.99838817
   0.50053956  0.74914957  0.49683403
   0.74957285  0.50240692  0.50256869
   0.75103798  0.74902797 -0.00048419
   0.00015372  0.00045325  0.50091470
   0.00028713  0.25011863 -0.00071390
   0.25151574 -0.00085626  0.00231185
   0.25106961  0.24897755  0.50152158
   0.00140176  0.50144597  0.50106119
   0.00316804  0.75065531  0.00085947
   0.25188282  0.49928665  0.00176346
   0.25165280  0.74939122  0.50306447
   0.49940625  0.99905623  0.49726144
   0.50085065  0.24836032  0.99820946
   0.74962002  0.99980745 -0.00110625
   0.74929928  0.24846615  0.49998038
   0.50005789  0.50059460  0.49843793
   0.49935295  0.75061834  0.99645022
   0.75147382  0.49998889  0.00022214
   0.74984487  0.75193355  0.49988889
unknown system                          
           1
     8.412530    0.001482    0.000688
     0.001482    8.415700    0.000416
     0.000344    0.000208    4.206723
   Mg   O 
    16    16
Direct configuration=     5
   0.00020788  0.99980717  0.99868169
   0.99906343  0.25209921  0.49683938
   0.24990088  0.99919603  0.50451729
   0.25157103  0.24859075 -0.00019513
   0.00154273  0.50150969  0.99934444
   0.00144361  0.75063279  0.50184521
   0.25026707  0.49730606  0.50270413
   0.25154262  0.74778972  0.00467271
   0.49984373  0.99836456  0.99622948
   0.50015992  0.25042430  0.49874738
   0.75188175 -0.00054169  0.49941876
   0.74890929  0.24930661  0.99889307
   0.50196981  0.50026491  0.99872222
   0.49970669  0.74966892  0.49644022
   0.74950390  0.50216312  0.50268663
   0.75052964  0.74946734 -0.00035459
   0.00024944 -0.00042125  0.50071423
   0.00095712  0.25070005  0.00033588
   0.25044706  0.00022487  0.00223804
   0.25086419  0.24976515  0.50284497
   0.00067466  0.50167286  0.50019005
   0.00322414  0.75082816  0.00227992
   0.25261294  0.49873580  0.00213896
   0.25133643  0.74961913  0.50240987
   0.49958164  0.99886525  0.49635846
   0.50116209  0.24882859  0.99756361
   0.74954178  0.99966078 -0.00063219
   0.74874982  0.24885472  0.49999542
   0.50016644  0.50090011  0.49764215
   0.50006460  0.74949455  0.99575109
   0.75213339  0.50011550  0.00089557
   0.74990984  0.75181330  0.49901261
unknown system                          
           1
     8.404963    0.001082    0.000270
     0.001082    8.407246    0.000556
     0.000135    0.000278    4.202536
   Mg   O 
    16    16
Direct configuration=     6
   0.00044732  0.00010280  0.99955621
   0.99901815  0.25182221  0.49745054
   0.24985948  0.99936213  0.50371757
   0.25148535  0.24861829  0.00064965
   0.00160173  0.50131298  0.99959665
   0.00170909  0.75075039  0.50204804
   0.25065819  0.49780954  0.50276412
   0.25164303  0.74818820  0.00381368
   0.49985368  0.99836140  0.99623658
   0.50014820  0.24991866  0.49836567
   0.75140451 -0.00052942  0.49905462
   0.74929412  0.24950854  0.99904016
   0.50197814  0.50000056  0.99844424
   0.49981661  0.74983436  0.49651974
   0.74965178  0.50203510  0.50222578
   0.75070354  0.74991228 -0.00029970
   0.00023870  0.00006340  0.50063316
   0.00047255  0.25058966 -0.00026311
   0.25057388 -0.00028756  0.00208012
   0.25066130  0.24957127  0.50181970
   0.00067816  0.50139653  0.50059813
   0.00237140  0.75049541  0.00148947
   0.25192511  0.49888042  0.00189112
   0.25112050  0.74929527  0.50246721
   0.49965287  0.99909209  0.49712462
   0.50091439  0.24920202  0.99801752
   0.74998850  0.99953210 -0.00088396
   0.74931182  0.24941501  0.49977620
   0.50054246  0.50051314  0.49824981
   0.50025389  0.74950936  0.99672366
   0.75153702  0.50030865  0.00053579
   0.75020407  0.75112227  0.49948853
unknown system                          
           1
     8.398240    0.000728   -0.000101
     0.000728    8.399735    0.000681
    -0.000050    0.000340    4.198816
   Mg   O 
    16    16
Direct configuration=     7
   0.00066027  0.00036571  0.00033393
   0.99897788  0.25157587  0.49799405
   0.24982266  0.99950985  0.50300637
   0.25140918  0.24864278  0.00140090
   0.00165419  0.50113804  0.99982095
   0.00194517  0.75085498  0.50222844
   0.25100599  0.49825729  0.50281748
   0.25173232  0.74854258  0.00304975
   0.49986253  0.99835860  0.99624290
   0.50013775  0.24946900  0.49802624
   0.75098015 -0.00051853  0.49873075
   0.74963634  0.24968812  0.99917099
   0.50198552  0.49976547  0.99819705
   0.49991437  0.74998149  0.49659047
   0.74978326  0.50192126  0.50181596
   0.75085819  0.75030796 -0.00025089
   0.00022916  0.00049440  0.50056104
   0.00004165  0.25049148 -0.00079584
   0.25068663 -0.00074325  0.00193970
   0.25048085  0.24939886  0.50090793
   0.00068127  0.50115079  0.50096104
   0.00161311  0.75019946  0.00078646
   0.25131349  0.49900900  0.00167065
   0.25092848  0.74900725  0.50251820
   0.49971624  0.99929381  0.49780596
   0.50069415  0.24953411  0.99842115
   0.75038572  0.99941769 -0.00110781
   0.74981157  0.24991330  0.49958128
   0.50087682  0.50016902  0.49879024
   0.50042224  0.74952252  0.99758858
   0.75100672  0.50048039  0.00021578
   0.75046568  0.75050776  0.49991181
unknown system                          
           1
     8.397863    0.000708   -0.000121
     0.000708    8.399313    0.000688
    -0.000061    0.000344    4.198607
   Mg   O 
    16    16
Direct configuration=     8
   0.00067223  0.00038048  0.00037762
   0.99897561  0.25156203  0.49802458
   0.24982060  0.99951815  0.50296642
   0.25140490  0.24864415  0.00144311
   0.00165714  0.50112822  0.99983355
   0.00195844  0.75086086  0.50223857
   0.25102553  0.49828245  0.50282048
   0.25173733  0.74856249  0.00300683
   0.49986303  0.99835844  0.99624325
   0.50013716  0.24944374  0.49800717
   0.75095631 -0.00051792  0.49871255
   0.74965556  0.24969821  0.99917834
   0.50198593  0.49975226  0.99818316
   0.49991986  0.74998975  0.49659444
   0.74979065  0.50191487  0.50179294
   0.75086688  0.75033019 -0.00024815
   0.00022863  0.00051861  0.50055699
   0.00001744  0.25048596 -0.00082577
   0.25069296 -0.00076885  0.00193181
   0.25047072  0.24938917  0.50085671
   0.00068144  0.50113699  0.50098143
   0.00157051  0.75018284  0.00074696
   0.25127914  0.49901622  0.00165826
   0.25091769  0.74899107  0.50252107
   0.49971980  0.99930515  0.49784424
   0.50068178  0.24955276  0.99844382
   0.75040803  0.99941126 -0.00112039
   0.74983964  0.24994129  0.49957033
   0.50089561  0.50014969  0.49882061
   0.50043170  0.74952326  0.99763716
   0.75097694  0.50049004  0.00019780
   0.75048038  0.75047323  0.49993559
unknown system                          
           1
     8.397108    0.000668   -0.000163
     0.000668    8.398470    0.000702
    -0.000082    0.000351    4.198189
   Mg   O 
    16    16
Direct configuration=     9
   0.00069616  0.00041002  0.00046500
   0.99897109  0.25153435  0.49808565
   0.24981646  0.99953475  0.50288651
   0.25139635  0.24864690  0.00152751
   0.00166303  0.50110856  0.99985875
   0.00198496  0.75087261  0.50225884
   0.25106461  0.49833276  0.50282648
   0.25174737  0.74860231  0.00292100
   0.49986402  0.99835812  0.99624396
   0.50013598  0.24939321  0.49796903
   0.75090863 -0.00051670  0.49867616
   0.74969401  0.24971839  0.99919305
   0.50198676  0.49972585  0.99815539
   0.49993084  0.75000628  0.49660239
   0.74980542  0.50190208  0.50174690
   0.75088425  0.75037465 -0.00024266
   0.00022756  0.00056703  0.50054889
  -0.00003097  0.25047493 -0.00088563
   0.25070563 -0.00082005  0.00191604
   0.25045044  0.24936980  0.50075427
   0.00068179  0.50110938  0.50102221
   0.00148532  0.75014958  0.00066797
   0.25121042  0.49903066  0.00163349
   0.25089612  0.74895871  0.50252680
   0.49972692  0.99932781  0.49792079
   0.50065705  0.24959007  0.99848917
   0.75045266  0.99939841 -0.00114553
   0.74989579  0.24999728  0.49954844
   0.50093317  0.50011103  0.49888133
   0.50045061  0.74952474  0.99773434
   0.75091736  0.50050934  0.00016184
   0.75050977  0.75040419  0.49998316
unknown system                          
           1
     8.397369    0.000682   -0.000149
     0.000682    8.398762    0.000697
    -0.000074    0.000348    4.198334
   Mg   O 
    16    16
Direct configuration=    10
   0.00068788  0.00039980  0.00043477
   0.99897265  0.25154393  0.49806452
   0.24981789  0.99952900  0.50291415
   0.25139931  0.24864595  0.00149832
   0.00166100  0.50111536  0.99985003
   0.00197578  0.75086855  0.50225183
   0.25105109  0.49831535  0.50282440
   0.25174390  0.74858853  0.00295069
   0.49986368  0.99835823  0.99624372
   0.50013639  0.24941069  0.49798223
   0.75092512 -0.00051712  0.49868875
   0.74968071  0.24971141  0.99918796
   0.50198647  0.49973499  0.99816499
   0.49992704  0.75000056  0.49659964
   0.74980031  0.50190650  0.50176282
   0.75087824  0.75035927 -0.00024456
   0.00022793  0.00055028  0.50055169
  -0.00001422  0.25047875 -0.00086492
   0.25070125 -0.00080234  0.00192150
   0.25045745  0.24937650  0.50078970
   0.00068167  0.50111893  0.50100810
   0.00151479  0.75016108  0.00069529
   0.25123419  0.49902566  0.00164206
   0.25090358  0.74896990  0.50252481
   0.49972445  0.99931997  0.49789431
   0.50066560  0.24957717  0.99847348
   0.75043722  0.99940286 -0.00113683
   0.74987637  0.24997791  0.49955601
   0.50092018  0.50012440  0.49886033
   0.50044407  0.74952423  0.99770073
   0.75093797  0.50050266  0.00017428
   0.75049960  0.75042807  0.49996670
unknown system                          
           1
     8.400698    0.000251   -0.000413
     0.000251    8.401644    0.000210
    -0.000206    0.000105    4.199965
   Mg   O 
    16    16
Direct configuration=    11
   0.00069439  0.00052678  0.00059900
   0.99887495  0.25166252  0.49819005
   0.24981447  0.99953840  0.50258140
   0.25127952  0.24862186  0.00190961
   0.00164727  0.50102295  0.00027195
   0.00208301  0.75095421  0.50235109
   0.25136698  0.49831738  0.50299657
   0.25177540  0.74840992  0.00310039
   0.50001372  0.99842130  0.99626491
   0.50030282  0.24923163  0.49777340
   0.75063671 -0.00037189  0.49853578
   0.74991130  0.24984316  0.99912460
   0.50192194  0.49953897  0.99802510
   0.50004075  0.74996806  0.49678898
   0.75012457  0.50179059  0.50133903
   0.75104751  0.75040885 -0.00024069
   0.00031178  0.00057016  0.50040257
  -0.00001639  0.25040631 -0.00078828
   0.25053762 -0.00087512  0.00159825
   0.25029563  0.24933339  0.50062614
   0.00063916  0.50090977  0.50085819
   0.00118360  0.75028524  0.00081715
   0.25110170  0.49906522  0.00158563
   0.25081939  0.74910612  0.50211998
   0.49982741  0.99940661  0.49812100
   0.50050410  0.24956959  0.99852556
   0.75042756  0.99950169 -0.00110749
   0.74988784  0.25018166  0.49929510
   0.50086938  0.49993664  0.49898018
   0.50057448  0.74948952  0.99823842
   0.75068797  0.50058928  0.00016111
   0.75053300  0.75034627  0.49988684
unknown system                          
           1
     8.401497    0.000148   -0.000476
     0.000147    8.402335    0.000093
    -0.000238    0.000047    4.200356
   Mg   O 
    16    16
Direct configuration=    12
   0.00069596  0.00055723  0.00063838
   0.99885152  0.25169096  0.49822015
   0.24981365  0.99954065  0.50250160
   0.25125080  0.24861608  0.00200824
   0.00164398  0.50100079  0.00037312
   0.00210872  0.75097475  0.50237490
   0.25144273  0.49831787  0.50303786
   0.25178296  0.74836709  0.00313629
   0.50004970  0.99843643  0.99627000
   0.50034272  0.24918869  0.49772332
   0.75056756 -0.00033706  0.49849910
   0.74996660  0.24987476  0.99910942
   0.50190646  0.49949196  0.99799155
   0.50006802  0.74996027  0.49683439
   0.75020232  0.50176280  0.50123740
   0.75108809  0.75042074 -0.00023976
   0.00033189  0.00057493  0.50036681
  -0.00001691  0.25038894 -0.00076990
   0.25049838 -0.00089258  0.00152073
   0.25025683  0.24932305  0.50058692
   0.00062897  0.50085961  0.50082224
   0.00110418  0.75031501  0.00084637
   0.25106993  0.49907470  0.00157210
   0.25079921  0.74913878  0.50202290
   0.49985211  0.99942739  0.49817536
   0.50046537  0.24956777  0.99853804
   0.75042525  0.99952540 -0.00110046
   0.74989060  0.25023052  0.49923254
   0.50085720  0.49989161  0.49900892
   0.50060575  0.74948121  0.99836735
   0.75062803  0.50061005  0.00015795
   0.75054100  0.75032666  0.49986769
unknown system                          
           1
     8.403094   -0.000059   -0.000603
    -0.000059    8.403718   -0.000140
    -0.000301   -0.000070    4.201139
   Mg   O 
    16    16
Direct configuration=    13
   0.00069908  0.00061812  0.00071715
   0.99880467  0.25174783  0.49828035
   0.24981201  0.99954515  0.50234203
   0.25119335  0.24860453  0.00220547
   0.00163740  0.50095648  0.00057544
   0.00216014  0.75101584  0.50242251
   0.25159421  0.49831885  0.50312043
   0.25179806  0.74828143  0.00320807
   0.50012166  0.99846668  0.99628017
   0.50042252  0.24910282  0.49762317
   0.75042925 -0.00026743  0.49842575
   0.75007718  0.24993795  0.99907905
   0.50187551  0.49939796  0.99792445
   0.50012254  0.74994469  0.49692519
   0.75035780  0.50170722  0.50103418
   0.75116926  0.75044452 -0.00023789
   0.00037210  0.00058447  0.50029530
  -0.00001795  0.25035420 -0.00073316
   0.25041992 -0.00092750  0.00136571
   0.25017922  0.24930237  0.50050848
   0.00060857  0.50075929  0.50075034
   0.00094537  0.75037454  0.00090480
   0.25100640  0.49909367  0.00154504
   0.25075884  0.74920410  0.50182877
   0.49990148  0.99946895  0.49828408
   0.50038792  0.24956414  0.99856301
   0.75042062  0.99957280 -0.00108638
   0.74989611  0.25032822  0.49910743
   0.50083283  0.49980157  0.49906638
   0.50066829  0.74946458  0.99862520
   0.75050815  0.50065158  0.00015163
   0.75055702  0.75028743  0.49982938
unknown system                          
           1
     8.406289   -0.000473   -0.000856
    -0.000473    8.406483   -0.000607
    -0.000428   -0.000303    4.202704
   Mg   O 
    16    16
Direct configuration=    14
   0.00070534  0.00073990  0.00087465
   0.99871100  0.25186156  0.49840073
   0.24980873  0.99955415  0.50202295
   0.25107850  0.24858144  0.00259985
   0.00162424  0.50086788  0.00098000
   0.00226296  0.75109800  0.50251772
   0.25189712  0.49832083  0.50328556
   0.25182826  0.74811015  0.00335159
   0.50026554  0.99852717  0.99630052
   0.50058209  0.24893111  0.49742291
   0.75015270 -0.00012818  0.49827907
   0.75029830  0.25006432  0.99901835
   0.50181360  0.49920997  0.99779026
   0.50023158  0.74991354  0.49710675
   0.75066871  0.50159607  0.50062780
   0.75133157  0.75049208 -0.00023416
   0.00045250  0.00060353  0.50015232
  -0.00002003  0.25028473 -0.00065968
   0.25026300 -0.00099733  0.00105571
   0.25002405  0.24926100  0.50035161
   0.00056779  0.50055870  0.50060654
   0.00062780  0.75049358  0.00102164
   0.25087936  0.49913159  0.00149093
   0.25067811  0.74933471  0.50144058
   0.50000023  0.99955206  0.49850148
   0.50023306  0.24955686  0.99861292
   0.75041137  0.99966758 -0.00105823
   0.74990713  0.25052360  0.49885727
   0.50078411  0.49962151  0.49918127
   0.50079336  0.74943133  0.99914080
   0.75026843  0.50073462  0.00013899
   0.75058903  0.75020898  0.49975279
unknown system                          
           1
     8.404410   -0.000229   -0.000707
    -0.000230    8.404857   -0.000332
    -0.000353   -0.000166    4.201783
   Mg   O 
    16    16
Direct configuration=    15
   0.00070166  0.00066829  0.00078203
   0.99876607  0.25179469  0.49832994
   0.24981066  0.99954887  0.50221056
   0.25114603  0.24859502  0.00236796
   0.00163198  0.50091997  0.00074213
   0.00220250  0.75104969  0.50246173
   0.25171902  0.49831966  0.50318845
   0.25181051  0.74821086  0.00326721
   0.50018094  0.99849159  0.99628855
   0.50048827  0.24903208  0.49754067
   0.75031531 -0.00021005  0.49836532
   0.75016828  0.24999001  0.99905403
   0.50185001  0.49932051  0.99786918
   0.50016747  0.74993185  0.49699999
   0.75048591  0.50166142  0.50086674
   0.75123614  0.75046411 -0.00023636
   0.00040523  0.00059232  0.50023639
  -0.00001880  0.25032558 -0.00070288
   0.25035527 -0.00095626  0.00123799
   0.25011529  0.24928533  0.50044386
   0.00059178  0.50067665  0.50069110
   0.00081452  0.75042359  0.00095294
   0.25095405  0.49910929  0.00152275
   0.25072558  0.74925792  0.50166882
   0.49994216  0.99950318  0.49837364
   0.50032412  0.24956114  0.99858358
   0.75041680  0.99961185 -0.00107479
   0.74990064  0.25040872  0.49900435
   0.50081276  0.49972739  0.49911373
   0.50071982  0.74945087  0.99883763
   0.75040938  0.50068580  0.00014643
   0.75057021  0.75025511  0.49979783
unknown system                          
           1
     8.403169    0.000037   -0.000835
     0.000037    8.403105   -0.000322
    -0.000418   -0.000161    4.200994
   Mg   O 
    16    16
Direct configuration=    16
   0.00060075  0.00071780  0.00067869
   0.99875734  0.25187956  0.49839916
   0.24975964  0.99961837  0.50174459
   0.25097267  0.24844082  0.00262765
   0.00155093  0.50090644  0.00139358
   0.00210744  0.75122888  0.50264825
   0.25192921  0.49814988  0.50341720
   0.25169922  0.74811151  0.00346100
   0.50037921  0.99855526  0.99632150
   0.50067166  0.24887769  0.49720888
   0.75014320 -0.00005234  0.49842195
   0.75024953  0.25020440  0.99889800
   0.50187402  0.49896948  0.99772370
   0.50039956  0.74975396  0.49742222
   0.75084180  0.50163959  0.50031473
   0.75140824  0.75043256 -0.00027699
   0.00030867  0.00061558  0.50016923
  -0.00001817  0.25039367 -0.00047895
   0.25027495 -0.00094663  0.00092095
   0.25002527  0.24930644  0.50060955
   0.00062340  0.50058846  0.50065790
   0.00076748  0.75050570  0.00123073
   0.25094174  0.49913757  0.00153976
   0.25076117  0.74937026  0.50142506
   0.50003670  0.99951804  0.49836914
   0.50026001  0.24937082  0.99848066
   0.75023703  0.99992868 -0.00108252
   0.74980865  0.25046661  0.49881476
   0.50066870  0.49958558  0.49909424
   0.50072391  0.74942645  0.99905634
   0.75042284  0.50059840  0.00003113
   0.75053278  0.75040758  0.49968941
unknown system                          
           1
     8.402111    0.000264   -0.000945
     0.000264    8.401613   -0.000312
    -0.000472   -0.000156    4.200322
   Mg   O 
    16    16
Direct configuration=    17
   0.00051472  0.00076002  0.00059059
   0.99874990  0.25195193  0.49845817
   0.24971615  0.99967762  0.50134733
   0.25082488  0.24830937  0.00284904
   0.00148184  0.50089491  0.00194896
   0.00202640  0.75138165  0.50280727
   0.25210840  0.49800513  0.50361222
   0.25160436  0.74802681  0.00362621
   0.50054824  0.99860953  0.99634960
   0.50082799  0.24874607  0.49692603
   0.74999648  0.00008212  0.49847023
   0.75031878  0.25038717  0.99876498
   0.50189450  0.49867021  0.99759967
   0.50059743  0.74960229  0.49778219
   0.75114519  0.50162097  0.49984413
   0.75155496  0.75040566 -0.00031162
   0.00022635  0.00063541  0.50011196
  -0.00001764  0.25045172 -0.00028805
   0.25020647 -0.00093842  0.00065066
   0.24994852  0.24932443  0.50075081
   0.00065036  0.50051328  0.50062959
   0.00072738  0.75057571  0.00146755
   0.25093124  0.49916168  0.00155425
   0.25079151  0.74946603  0.50121725
   0.50011730  0.99953070  0.49836531
   0.50020536  0.24920855  0.99839292
   0.75008377  0.00019880 -0.00108912
   0.74973022  0.25051596  0.49865313
   0.50054589  0.49946468  0.49907763
   0.50072740  0.74940563  0.99924280
   0.75043432  0.50052389 -0.00006716
   0.75050087  0.75053756  0.49959698
unknown system                          
           1
     8.401181    0.000712   -0.000672
     0.000712    8.400253    0.000163
    -0.000336    0.000082    4.199762
   Mg   O 
    16    16
Direct configuration=    18
   0.00030669  0.00080291  0.00037560
   0.99882631  0.25189466  0.49866260
   0.24976083  0.99969367  0.50090053
   0.25070458  0.24810973  0.00275434
   0.00162191  0.50107578  0.00262638
   0.00198006  0.75159533  0.50320639
   0.25186932  0.49806327  0.50357715
   0.25163014  0.74813978  0.00359286
   0.50067720  0.99849197  0.99627839
   0.50099180  0.24847485  0.49647752
   0.74996398  0.00023039  0.49856814
   0.75019486  0.25048141  0.99845087
   0.50187056  0.49832535  0.99732527
   0.50068206  0.74937157  0.49828931
   0.75130530  0.50174449  0.49932657
   0.75155692  0.75050565 -0.00036244
  -0.00010173  0.00072518  0.50018832
  -0.00011884  0.25060783 -0.00009205
   0.25015361 -0.00085903  0.00053027
   0.24993850  0.24931246  0.50104176
   0.00064167  0.50067716  0.50103376
   0.00076623  0.75054171  0.00165624
   0.25093505  0.49906084  0.00170661
   0.25078883  0.74942882  0.50151093
   0.50011915  0.99946764  0.49818376
   0.50023920  0.24903841  0.99821508
   0.75000952  0.00045572 -0.00111763
   0.74972050  0.25057372  0.49862544
   0.50065850  0.49931469  0.49895319
   0.50077417  0.74928203  0.99913732
   0.75068142  0.50041406 -0.00035224
   0.75057125  0.75066497  0.49966128
unknown system                          
           1
     8.399957    0.001300   -0.000313
     0.001300    8.398466    0.000788
    -0.000157    0.000394    4.199025
   Mg   O 
    16    16
Direct configuration=    19
   0.00003322  0.00085933  0.00009298
   0.99892676  0.25181937  0.49893135
   0.24981957  0.99971480  0.50031313
   0.25054645  0.24784727  0.00262988
   0.00180603  0.50131355  0.00351692
   0.00191912  0.75187625  0.50373108
   0.25155503  0.49813974  0.50353106
   0.25166402  0.74828829  0.00354900
   0.50084675  0.99833740  0.99618478
   0.50120717  0.24811828  0.49588790
   0.74992123  0.00042532  0.49869684
   0.75003196  0.25060534  0.99803791
   0.50183911  0.49787198  0.99696457
   0.50079331  0.74906822  0.49895603
   0.75151579  0.50190690  0.49864611
   0.75155950  0.75063711 -0.00042927
  -0.00053305  0.00084323  0.50028871
  -0.00025190  0.25081307  0.00016562
   0.25008411 -0.00075464  0.00037199
   0.24992531  0.24929670  0.50142426
   0.00063022  0.50089261  0.50156509
   0.00081730  0.75049701  0.00190432
   0.25094007  0.49892827  0.00190692
   0.25078530  0.74937988  0.50189703
   0.50012158  0.99938474  0.49794510
   0.50028370  0.24881472  0.99798130
   0.74991188  0.00079349 -0.00115515
   0.74970770  0.25064966  0.49858903
   0.50080657  0.49911751  0.49878960
   0.50083568  0.74911953  0.99899867
   0.75100629  0.50026967 -0.00072701
   0.75066377  0.75083247  0.49974578
unknown system                          
           1
     8.400407    0.001084   -0.000445
     0.001084    8.399123    0.000559
    -0.000223    0.000279    4.199296
   Mg   O 
    16    16
Direct configuration=    20
   0.00013376  0.00083858  0.00019688
   0.99888983  0.25184706  0.49883254
   0.24979797  0.99970702  0.50052911
   0.25060458  0.24794377  0.00267562
   0.00173835  0.50122614  0.00318951
   0.00194154  0.75177297  0.50353818
   0.25167058  0.49811161  0.50354800
   0.25165156  0.74823368  0.00356514
   0.50078441  0.99839424  0.99621919
   0.50112797  0.24824938  0.49610467
   0.74993695  0.00035364  0.49864953
   0.75009186  0.25055976  0.99818974
   0.50185066  0.49803867  0.99709716
   0.50075240  0.74917977  0.49871088
   0.75143840  0.50184718  0.49889631
   0.75155856  0.75058877 -0.00040469
  -0.00037447  0.00079982  0.50025179
  -0.00020297  0.25073761  0.00007089
   0.25010967 -0.00079303  0.00043019
   0.24993016  0.24930250  0.50128363
   0.00063444  0.50081340  0.50136975
   0.00079853  0.75051345  0.00181311
   0.25093822  0.49897702  0.00183326
   0.25078660  0.74939788  0.50175507
   0.50012068  0.99941522  0.49803284
   0.50026733  0.24889696  0.99806724
   0.74994778  0.00066929 -0.00114134
   0.74971241  0.25062173  0.49860242
   0.50075212  0.49919001  0.49884974
   0.50081306  0.74917928  0.99904964
   0.75088684  0.50032276 -0.00058922
   0.75062976  0.75077088  0.49971472
unknown system                          
           1
     8.403107    0.000910   -0.000225
     0.000910    8.401082    0.000212
    -0.000112    0.000106    4.200766
   Mg   O 
    16    16
Direct configuration=    21
  -0.00015897  0.00101677  0.00016142
   0.99887350  0.25189049  0.49935836
   0.24981207  0.99965603  0.50043923
   0.25050346  0.24791770  0.00230754
   0.00194011  0.50153148  0.00371949
   0.00181651  0.75179078  0.50379696
   0.25158333  0.49804894  0.50367616
   0.25182256  0.74825667  0.00370584
   0.50086413  0.99815325  0.99605537
   0.50124591  0.24814252  0.49592597
   0.74993356  0.00053066  0.49854503
   0.75003344  0.25069055  0.99774848
   0.50167997  0.49789479  0.99681374
   0.50072633  0.74882725  0.49890600
   0.75154057  0.50198877  0.49814663
   0.75146929  0.75071923 -0.00040081
  -0.00051335  0.00088670  0.50034798
  -0.00025134  0.25075692  0.00025230
   0.25000622 -0.00082468  0.00049237
   0.24993919  0.24913995  0.50122305
   0.00069208  0.50109270  0.50190473
   0.00084864  0.75067927  0.00202039
   0.25095740  0.49888560  0.00207167
   0.25073287  0.74940310  0.50214962
   0.50002295  0.99918716  0.49782274
   0.50027941  0.24874175  0.99787223
   0.74998242  0.00057513 -0.00124728